
Host: DESKTOP-DSEO5B4

Timers On : Tue Jan 24 11:45:38 2023
Timers Off: Tue Jan 24 11:45:40 2023

Wall Time:        1.55 seconds

                                                       Time (seconds)
Module                                       User      System        Wall        Calls

--------------------------------------------------------------------------------------

**************************************************************************************
